 Gaussian 16, Revision B.01,
 Gaussian 16:  ES64L-G16RevB.01 20-Dec-2017

 ------------------------------------------------------
 #p B3LYP/6-31+G* Int=Ultrafine freq=(hpmodes,intmodes)
 ------------------------------------------------------

 ------------------------------------
 TS2uncatalysed1a_freq_B3LYP_631pGd-1
 ------------------------------------
 Symbolic Z-matrix:
 Charge =  0 Multiplicity = 1

                         Standard orientation:
 ---------------------------------------------------------------------
 Center     Atomic      Atomic             Coordinates (Angstroms)
 Number     Number       Type             X           Y           Z
 ---------------------------------------------------------------------
      1          1           0        4.040209   -1.802703   -1.760852
      2          1           0        3.218272    1.771483    1.882238
      3          6           0       -0.907960    0.912352   -0.541193
      4          6           0       -2.236644    0.618928   -1.109289
      5          1           0       -0.667594    1.877781   -0.108601
      6          6           0        0.059770   -0.091306   -0.654298
      7          1           0        3.017645    3.249093    0.889204
      8          1           0        4.032949    1.904389    0.289309
      9          6           0       -2.326092   -1.664134    0.099538
     10          8           0       -0.198444   -1.219797   -1.167738
     11         15           0        1.714402    0.047315    0.155754
     12          8           0        1.962248    1.645443    0.213203
     13          8           0        2.797997   -0.398519   -0.967708
     14          8           0        1.849002   -0.690982    1.447907
     15          6           0        3.138472    2.164499    0.864181
     16          6           0        3.145941   -1.788696   -1.134082
     17          1           0        3.358262   -2.247073   -0.164004
     18          1           0        2.327696   -2.317945   -1.630409
     19          6           0       -3.054202   -0.390392   -0.096515
     20          1           0       -1.139934    0.049515    2.652749
     21          6           0       -3.088686    1.854507   -1.422142
     22          6           0       -2.986897    0.262360    1.305062
     23          1           0       -3.838734   -0.082004    1.912908
     24          1           0       -2.114081    0.016235   -2.015404
     25          1           0       -4.053251   -0.510543   -0.527374
     26          6           0       -1.536564   -1.592109    1.245648
     27          1           0       -3.002889    1.353788    1.304720
     28          1           0       -2.396792   -2.515650   -0.566143
     29          6           0       -1.722597   -0.345573    1.827313
     30          1           0       -0.782056   -2.313548    1.534426
     31          1           0       -4.085749    1.570410   -1.779980
     32          1           0       -3.215824    2.507914   -0.551348
     33          1           0       -2.607825    2.447359   -2.208401
 ---------------------------------------------------------------------

 SCF Done:  E(RB3LYP) =  -1071.64486481     A.U. after   17 cycles

 The electronic state is 1-A.
 Alpha  occ. eigenvalues --  -77.20521 -19.17839 -19.17099 -19.13027 -19.10461
 Alpha  occ. eigenvalues --  -10.24837 -10.24271 -10.23323 -10.23297 -10.23181
 Alpha  occ. eigenvalues --  -10.22449 -10.21571 -10.21323 -10.20672 -10.19215
 Alpha  occ. eigenvalues --  -10.19121  -6.65422  -4.81883  -4.81746  -4.81495
 Alpha  occ. eigenvalues --   -1.06834  -1.02480  -1.00976  -0.95066  -0.89160
 Alpha  occ. eigenvalues --   -0.80696  -0.73864  -0.73271  -0.72227  -0.70924
 Alpha  occ. eigenvalues --   -0.69120  -0.62859  -0.59599  -0.56545  -0.55309
 Alpha  occ. eigenvalues --   -0.53712  -0.51945  -0.50832  -0.49943  -0.48488
 Alpha  occ. eigenvalues --   -0.46608  -0.45409  -0.44800  -0.44128  -0.44005
 Alpha  occ. eigenvalues --   -0.42435  -0.41573  -0.40446  -0.40127  -0.39770
 Alpha  occ. eigenvalues --   -0.39204  -0.38745  -0.37824  -0.36608  -0.35146
 Alpha  occ. eigenvalues --   -0.34664  -0.34155  -0.33363  -0.31849  -0.31071
 Alpha  occ. eigenvalues --   -0.29144  -0.28757  -0.28190  -0.23960  -0.21657
 Alpha virt. eigenvalues --   -0.09449  -0.00707   0.00061   0.01086   0.01191
 Alpha virt. eigenvalues --    0.01647   0.01791   0.02477   0.02809   0.03884
 Alpha virt. eigenvalues --    0.04125   0.04269   0.04368   0.05123   0.06031

 Mulliken charges:
               1
     1  H    0.198663
     2  H    0.228593
     3  C    0.589628
     4  C   -0.414507
     5  H    0.212681
     6  C   -0.885838
     7  H    0.205771
     8  H    0.219006
     9  C   -0.246200
    10  O   -0.383861
    11  P    1.881211
    12  O   -0.532758
    13  O   -0.581664
    14  O   -0.698475
    15  C   -0.516538
    16  C   -0.443111
    17  H    0.228091
    18  H    0.232678
    19  C    0.098170
    20  H    0.219684
    21  C   -0.867346
    22  C   -0.800922
    23  H    0.230608
    24  H    0.245138
    25  H    0.197958
    26  C    0.014547
    27  H    0.216467
    28  H    0.216948
    29  C    0.070865
    30  H    0.227654
    31  H    0.203395
    32  H    0.206404
    33  H    0.227063
 Sum of Mulliken charges =  -0.00000

 Dipole moment (field-independent basis, Debye):
    X=             -2.9799    Y=              1.4055    Z=              0.4713  Tot=              3.3282
 Quadrupole moment (field-independent basis, Debye-Ang):
   XX=            -87.9284   YY=            -97.8434   ZZ=           -106.5169
   XY=              2.1273   XZ=             -2.6725   YZ=              4.3216

  Exact polarizability: 198.059   3.334 160.754 -10.141  -5.698 155.642
 Approx polarizability: 272.232  17.782 271.663 -37.152 -14.924 288.121

 ******    1 imaginary frequencies (negative Signs) ******

                      1                      2                      3
                      A                      A                      A
 Frequencies --   -137.2433                29.2980                54.4641
 Red. masses --      5.3660                 4.5286                 3.6515
 Frc consts  --      0.0596                 0.0023                 0.0064
 IR Inten    --      5.3494                 1.5945                 3.8249

                      4                      5                      6
                      A                      A                      A
 Frequencies --     67.5111                73.5986                97.1054
 Red. masses --      3.3176                 3.7695                 2.9968
 Frc consts  --      0.0089                 0.0120                 0.0166
 IR Inten    --      2.7295                 4.6720                 2.8784

                      7                      8                      9
                      A                      A                      A
 Frequencies --    114.2186               118.5136               132.8804
 Red. masses --      1.1097                 1.1128                 3.3703
 Frc consts  --      0.0085                 0.0092                 0.0351
 IR Inten    --      0.5433                 0.4696                 7.7265

                     10                     11                     12
                      A                      A                      A
 Frequencies --    159.8477               179.0984               198.4391
 Red. masses --      3.5113                 3.6836                 1.8658
 Frc consts  --      0.0529                 0.0696                 0.0433
 IR Inten    --      2.4719                 3.5149                 8.3176

                     13                     14                     15
                      A                      A                      A
 Frequencies --    220.3599               226.1629               245.0220
 Red. masses --      2.0971                 4.1896                 4.7445
 Frc consts  --      0.0600                 0.1263                 0.1678
 IR Inten    --      5.2114                 4.1865                11.2982

                     16                     17                     18
                      A                      A                      A
 Frequencies --    265.3124               291.4510               331.6334
 Red. masses --      5.6836                 3.3763                 5.3479
 Frc consts  --      0.2357                 0.1690                 0.3465
 IR Inten    --      6.2234                 3.4296                 0.8947

                     19                     20                     21
                      A                      A                      A
 Frequencies --    371.0227               377.4497               419.2106
 Red. masses --      5.1474                 6.6732                 2.5373
 Frc consts  --      0.4175                 0.5601                 0.2627
 IR Inten    --     12.3822                23.6018                 2.3773

                     22                     23                     24
                      A                      A                      A
 Frequencies --    423.2108               480.5228               489.3174
 Red. masses --      4.3293                 5.6388                 3.1855
 Frc consts  --      0.4569                 0.7671                 0.4494
 IR Inten    --      6.3687                 8.7024                 4.8836

                     25                     26                     27
                      A                      A                      A
 Frequencies --    559.1649               567.1734               651.0206
 Red. masses --      3.8579                 4.7906                 2.4344
 Frc consts  --      0.7107                 0.9080                 0.6079
 IR Inten    --     49.0893                82.7457                15.7728

                     28                     29                     30
                      A                      A                      A
 Frequencies --    681.7684               737.5142               746.9002
 Red. masses --      3.7210                 7.8151                 1.8064
 Frc consts  --      1.0190                 2.5045                 0.5937
 IR Inten    --      5.4183               160.8269                 1.7098

                     31                     32                     33
                      A                      A                      A
 Frequencies --    769.5824               806.0770               807.5372
 Red. masses --      1.4885                 8.9241                 2.8700
 Frc consts  --      0.5194                 3.4164                 1.1027
 IR Inten    --     16.6033               126.6545                 5.0089

                     34                     35                     36
                      A                      A                      A
 Frequencies --    824.3659               859.5907               865.4746
 Red. masses --      3.0982                 5.1543                 1.7557
 Frc consts  --      1.2405                 2.2439                 0.7748
 IR Inten    --     35.2595                33.6211                 5.0954

                     37                     38                     39
                      A                      A                      A
 Frequencies --    927.9198               938.0421               958.7567
 Red. masses --      2.3542                 1.8102                 1.7999
 Frc consts  --      1.1943                 0.9385                 0.9748
 IR Inten    --     13.9871                19.8929                 4.1556

                     40                     41                     42
                      A                      A                      A
 Frequencies --    977.0560               991.7151              1028.5600
 Red. masses --      1.3772                 1.7493                 1.7586
 Frc consts  --      0.7746                 1.0136                 1.0962
 IR Inten    --     14.7619                 3.8648                 7.4862

                     43                     44                     45
                      A                      A                      A
 Frequencies --   1055.6776              1058.4743              1074.9262
 Red. masses --      9.9100                 1.7323                 8.3461
 Frc consts  --      6.5071                 1.1435                 5.6819
 IR Inten    --    392.6276                 5.9023               305.4095

                     46                     47                     48
                      A                      A                      A
 Frequencies --   1098.7900              1109.0273              1119.0214
 Red. masses --      1.3420                 2.0566                 1.2463
 Frc consts  --      0.9546                 1.4904                 0.9195
 IR Inten    --      9.6888                 4.4259                 3.2887

                     49                     50                     51
                      A                      A                      A
 Frequencies --   1129.6816              1162.9862              1180.4579
 Red. masses --      1.4467                 1.2348                 1.5737
 Frc consts  --      1.0878                 0.9840                 1.2920
 IR Inten    --      0.2406                13.6966                 6.1297

                     52                     53                     54
                      A                      A                      A
 Frequencies --   1181.6571              1186.3660              1204.2476
 Red. masses --      1.5034                 1.2575                 1.4156
 Frc consts  --      1.2369                 1.0428                 1.2096
 IR Inten    --      0.9551                 2.2041                16.3084

                     55                     56                     57
                      A                      A                      A
 Frequencies --   1206.8991              1224.8176              1231.5329
 Red. masses --      1.3328                 1.3716                 5.0181
 Frc consts  --      1.1438                 1.2123                 4.4842
 IR Inten    --     16.0282                15.1223               105.6729

                     58                     59                     60
                      A                      A                      A
 Frequencies --   1278.8205              1305.1382              1325.6390
 Red. masses --      1.6974                 1.3286                 1.4081
 Frc consts  --      1.6355                 1.3334                 1.4579
 IR Inten    --      3.8597                 1.6610                 1.7021

                     61                     62                     63
                      A                      A                      A
 Frequencies --   1343.9300              1376.2169              1435.0572
 Red. masses --      1.5805                 2.0415                 1.2333
 Frc consts  --      1.6819                 2.2781                 1.4964
 IR Inten    --     21.6842                 3.6852                 3.5146

                     64                     65                     66
                      A                      A                      A
 Frequencies --   1468.3492              1486.6362              1487.0409
 Red. masses --      3.8777                 1.1542                 1.2469
 Frc consts  --      4.9258                 1.5029                 1.6246
 IR Inten    --     24.9684                 5.1601                14.5659

                     67                     68                     69
                      A                      A                      A
 Frequencies --   1497.6815              1498.8541              1507.2856
 Red. masses --      1.8730                 1.4317                 2.3859
 Frc consts  --      2.4753                 1.8950                 3.1937
 IR Inten    --     62.7179                24.1484                 1.4251

                     70                     71                     72
                      A                      A                      A
 Frequencies --   1512.5751              1515.8382              1518.5464
 Red. masses --      1.0744                 1.0480                 1.0582
 Frc consts  --      1.4482                 1.4187                 1.4378
 IR Inten    --      9.3759                 6.6177                 7.1940

                     73                     74                     75
                      A                      A                      A
 Frequencies --   1525.8273              1528.1337              1529.7872
 Red. masses --      1.0491                 1.1249                 1.0637
 Frc consts  --      1.4391                 1.5476                 1.4667
 IR Inten    --     10.0777                17.0714                20.6006

                     76                     77                     78
                      A                      A                      A
 Frequencies --   1535.1525              3015.4863              3044.6841
 Red. masses --      4.2772                 1.0730                 1.0360
 Frc consts  --      5.9390                 5.7484                 5.6582
 IR Inten    --    109.6899                26.7766                39.4470

                     79                     80                     81
                      A                      A                      A
 Frequencies --   3060.4431              3064.9417              3073.4669
 Red. masses --      1.0290                 1.0276                 1.0854
 Frc consts  --      5.6783                 5.6877                 6.0410
 IR Inten    --     62.5710                55.3124                 1.6630

                     82                     83                     84
                      A                      A                      A
 Frequencies --   3096.3023              3107.8736              3113.4684
 Red. masses --      1.0874                 1.1003                 1.1008
 Frc consts  --      6.1424                 6.2618                 6.2869
 IR Inten    --     17.9825                39.0813                20.9626

                     85                     86                     87
                      A                      A                      A
 Frequencies --   3136.4949              3138.6645              3147.0113
 Red. masses --      1.1079                 1.0889                 1.1084
 Frc consts  --      6.4218                 6.3204                 6.4674
 IR Inten    --     16.7734                18.9774                11.9529

                     88                     89                     90
                      A                      A                      A
 Frequencies --   3156.5781              3160.4025              3222.7404
 Red. masses --      1.1074                 1.1060                 1.0905
 Frc consts  --      6.5013                 6.5088                 6.6732
 IR Inten    --     22.9819                17.7823                 1.5428

                     91                     92                     93
                      A                      A                      A
 Frequencies --   3237.0092              3251.2658              3265.3699
 Red. masses --      1.0901                 1.0923                 1.1024
 Frc consts  --      6.7298                 6.8028                 6.9254
 IR Inten    --      2.7108                 1.7239                 0.8683

 - Thermochemistry -
 -------------------
 Temperature   298.150 Kelvin.  Pressure   1.00000 Atm.
 Atom     1 has atomic number  1 and mass   1.00783

 Molecular mass:   244.08645 amu.
 Principal axes and moments of inertia in atomic units:
                           1         2         3
     Eigenvalues --  2215.457605428.579675777.68157
           X            0.99988  -0.01496   0.00479
           Y            0.01475   0.99904   0.04132
           Z           -0.00541  -0.04124   0.99913
 This molecule is an asymmetric top.
 Rotational symmetry number  1.
 Warning -- assumption of classical behavior for rotation
           may cause significant error
 Rotational temperatures (Kelvin)      0.03910     0.01596     0.01499
 Rotational constants (GHZ):           0.81461     0.33245     0.31236
    1 imaginary frequencies ignored.
 Zero-point vibrational energy     707334.8 (Joules/Mol)
                                  169.05708 (Kcal/Mol)
 Warning -- explicit consideration of  25 degrees of freedom as
           vibrations may cause significant error
 Vibrational temperatures:     42.15    78.36    97.13   105.89   139.71
          (Kelvin)            164.34   170.51   191.19   229.99   257.68
                              285.51   317.05   325.40   352.53   381.73
                              419.33   477.15   533.82   543.07   603.15
                              608.91   691.37   704.02   804.51   816.04
                              936.67   980.91  1061.12  1074.62  1107.26
                             1159.77  1161.87  1186.08  1236.76  1245.22
                             1335.07  1349.63  1379.44  1405.77  1426.86
                             1479.87  1518.88  1522.91  1546.58  1580.91
                             1595.64  1610.02  1625.36  1673.28  1698.42
                             1700.14  1706.92  1732.64  1736.46  1762.24
                             1771.90  1839.94  1877.80  1907.30  1933.62
                             1980.07  2064.73  2112.63  2138.94  2139.52
                             2154.83  2156.52  2168.65  2176.26  2180.95
                             2184.85  2195.33  2198.64  2201.02  2208.74
                             4338.61  4380.62  4403.30  4409.77  4422.03
                             4454.89  4471.54  4479.59  4512.72  4515.84
                             4527.85  4541.61  4547.11  4636.80  4657.33
                             4677.85  4698.14

 Zero-point correction=                           0.269410 (Hartree/Particle)
 Thermal correction to Energy=                    0.286612
 Thermal correction to Enthalpy=                  0.287557
 Thermal correction to Gibbs Free Energy=         0.223913
 Sum of electronic and zero-point Energies=          -1071.375455
 Sum of electronic and thermal Energies=             -1071.358252
 Sum of electronic and thermal Enthalpies=           -1071.357308
 Sum of electronic and thermal Free Energies=        -1071.420952

                     E (Thermal)             CV                S
                      KCal/Mol        Cal/Mol-Kelvin    Cal/Mol-Kelvin
 Total                  179.852             63.170            133.950
 Electronic               0.000              0.000              0.000
 Translational            0.889              2.981             42.378
 Rotational               0.889              2.981             32.608
 Vibrational            178.075             57.208             58.964
 Vibration     1          0.593              1.984              5.876
 Vibration     2          0.596              1.976              4.648
 Vibration     3          0.598              1.970              4.225
 Vibration     4          0.599              1.966              4.055
 Vibration     5          0.603              1.951              3.512
 Vibration     6          0.607              1.938              3.196
 Vibration     7          0.609              1.934              3.124
 Vibration     8          0.613              1.920              2.904
 Vibration     9          0.622              1.892              2.552
 Vibration    10          0.629              1.868              2.338
 Vibration    11          0.637              1.842              2.148
 Vibration    12          0.647              1.810              1.956
 Vibration    13          0.650              1.801              1.909
 Vibration    14          0.660              1.771              1.766
 Vibration    15          0.671              1.737              1.627
 Vibration    16          0.687              1.690              1.466
 Vibration    17          0.714              1.612              1.252
 Vibration    18          0.743              1.532              1.076
 Vibration    19          0.748              1.518              1.049
 Vibration    20          0.782              1.428              0.895
 Vibration    21          0.785              1.420              0.881
 Vibration    22          0.837              1.293              0.709
 Vibration    23          0.845              1.274              0.685
 Vibration    24          0.915              1.120              0.526
 Vibration    25          0.923              1.102              0.510

 Optimization completed.
    -- Stationary point found.
 Normal termination of Gaussian 16 at Mon Dec 17 22:22:49 2018.
