 Gaussian 16, Revision B.01,
 Gaussian 16:  ES64L-G16RevB.01 20-Dec-2017

 ------------------------------------------------------
 #p B3LYP/6-31+G* Int=Ultrafine freq=(hpmodes,intmodes)
 ------------------------------------------------------

 -------------------------------------------
 TS2uncatalysed1a_freq_B3LYP_631pGd-1_sorted
 -------------------------------------------
 Symbolic Z-matrix:
 Charge =  0 Multiplicity = 1

                         Standard orientation:
 ---------------------------------------------------------------------
 Center     Atomic      Atomic             Coordinates (Angstroms)
 Number     Number       Type             X           Y           Z
 ---------------------------------------------------------------------
      1          1           0        4.200585   -1.703858   -1.674129
      2          1           0        3.127550    1.772903    1.966320
      3          6           0       -0.897392    0.852518   -0.609513
      4          6           0       -2.155607    0.650794   -1.224672
      5          1           0       -0.663587    1.772779   -0.083827
      6          6           0        0.104443   -0.157718   -0.721140
      7          1           0        2.898938    3.259905    0.993570
      8          1           0        3.978186    1.963816    0.398031
      9          6           0       -2.603279   -1.655975    0.179915
     10          8           0       -0.049116   -1.238174   -1.321086
     11         15           0        1.731594    0.025934    0.170168
     12          8           0        1.920945    1.631046    0.262143
     13          8           0        2.865763   -0.362878   -0.921683
     14          8           0        1.840158   -0.728206    1.454769
     15          6           0        3.060404    2.181130    0.953420
     16          6           0        3.270495   -1.736568   -1.102745
     17          1           0        3.440087   -2.214448   -0.133758
     18          1           0        2.500842   -2.276054   -1.661214
     19          6           0       -3.243247   -0.397769    0.057019
     20          1           0       -1.043054   -0.010888    2.599693
     21          6           0       -3.028398    1.855465   -1.533060
     22          6           0       -2.944199    0.342925    1.357194
     23          1           0       -3.760496    0.128907    2.068426
     24          1           0       -2.146440   -0.100846   -2.011698
     25          1           0       -4.214793   -0.314536   -0.425159
     26          6           0       -1.638279   -1.600260    1.209307
     27          1           0       -2.860419    1.429005    1.282928
     28          1           0       -2.752928   -2.498504   -0.486303
     29          6           0       -1.703823   -0.363639    1.816021
     30          1           0       -0.893804   -2.360153    1.414218
     31          1           0       -4.052471    1.568242   -1.795594
     32          1           0       -3.072409    2.560677   -0.695564
     33          1           0       -2.608391    2.394325   -2.392078
 ---------------------------------------------------------------------

 SCF Done:  E(RB3LYP) =  -1071.64100493     A.U. after   17 cycles

 The electronic state is 1-A.
 Alpha  occ. eigenvalues --  -77.20723 -19.18093 -19.17353 -19.13342 -19.10732
 Alpha  occ. eigenvalues --  -10.26282 -10.24470 -10.23320 -10.22471 -10.22270
 Alpha  occ. eigenvalues --  -10.22071 -10.21673 -10.21247 -10.20257 -10.19909
 Alpha  occ. eigenvalues --  -10.19079  -6.65640  -4.82099  -4.81963  -4.81713
 Alpha  occ. eigenvalues --   -1.07078  -1.02774  -1.01987  -0.95342  -0.88514
 Alpha  occ. eigenvalues --   -0.80614  -0.73828  -0.72800  -0.72298  -0.71275
 Alpha  occ. eigenvalues --   -0.69325  -0.62862  -0.58547  -0.56857  -0.54807
 Alpha  occ. eigenvalues --   -0.53503  -0.52565  -0.51088  -0.50144  -0.47383
 Alpha  occ. eigenvalues --   -0.46809  -0.45766  -0.44976  -0.44477  -0.44183
 Alpha  occ. eigenvalues --   -0.42533  -0.41847  -0.40274  -0.40124  -0.39663
 Alpha  occ. eigenvalues --   -0.39360  -0.38509  -0.38419  -0.37792  -0.36057
 Alpha  occ. eigenvalues --   -0.35389  -0.34230  -0.32155  -0.31900  -0.31295
 Alpha  occ. eigenvalues --   -0.29138  -0.28458  -0.28033  -0.23882  -0.22037
 Alpha virt. eigenvalues --   -0.08624  -0.01215  -0.00505   0.00468   0.01197
 Alpha virt. eigenvalues --    0.01474   0.01977   0.02565   0.02704   0.03859
 Alpha virt. eigenvalues --    0.04178   0.04245   0.04325   0.05084   0.05958

 Mulliken charges:
               1
     1  H    0.199080
     2  H    0.228950
     3  C    0.702012
     4  C   -0.534887
     5  H    0.210895
     6  C   -0.819564
     7  H    0.206171
     8  H    0.219848
     9  C   -0.240527
    10  O   -0.377866
    11  P    1.867293
    12  O   -0.529373
    13  O   -0.586206
    14  O   -0.699029
    15  C   -0.514857
    16  C   -0.446285
    17  H    0.228971
    18  H    0.234448
    19  C    0.041918
    20  H    0.219982
    21  C   -0.855522
    22  C   -0.787046
    23  H    0.237617
    24  H    0.247840
    25  H    0.198205
    26  C    0.052360
    27  H    0.220455
    28  H    0.203486
    29  C    0.000893
    30  H    0.220937
    31  H    0.205512
    32  H    0.211326
    33  H    0.232962
 Sum of Mulliken charges =  -0.00000

 Dipole moment (field-independent basis, Debye):
    X=             -2.8017    Y=              2.1128    Z=              0.2136  Tot=              3.5156
 Quadrupole moment (field-independent basis, Debye-Ang):
   XX=            -86.9689   YY=            -98.2240   ZZ=           -106.8989
   XY=              0.5425   XZ=             -1.2662   YZ=              4.2893

  Exact polarizability: 202.519   1.961 162.319  -7.116  -6.019 157.050
 Approx polarizability: 279.277  13.136 271.338 -21.587 -15.247 277.329

 ******    1 imaginary frequencies (negative Signs) ******

                      1                      2                      3
                      A                      A                      A
 Frequencies --   -368.1041                24.4039                43.7007
 Red. masses --      8.7154                 4.6076                 3.7084
 Frc consts  --      0.6958                 0.0016                 0.0042
 IR Inten    --     53.6456                 1.3994                 1.1697

                      4                      5                      6
                      A                      A                      A
 Frequencies --     51.6722                71.0214                79.1441
 Red. masses --      4.2657                 3.4013                 3.3405
 Frc consts  --      0.0067                 0.0101                 0.0123
 IR Inten    --      3.0599                 5.3587                 2.3493

                      7                      8                      9
                      A                      A                      A
 Frequencies --     99.1324               115.0120               115.8091
 Red. masses --      3.5039                 1.1154                 1.2313
 Frc consts  --      0.0203                 0.0087                 0.0097
 IR Inten    --      3.0138                 0.7559                 0.6123

                     10                     11                     12
                      A                      A                      A
 Frequencies --    127.8807               155.2791               164.0273
 Red. masses --      2.8990                 4.9857                 2.5826
 Frc consts  --      0.0279                 0.0708                 0.0409
 IR Inten    --      3.3453                 5.5727                 2.5221

                     13                     14                     15
                      A                      A                      A
 Frequencies --    192.5658               210.2357               213.3832
 Red. masses --      1.4970                 3.2472                 4.0996
 Frc consts  --      0.0327                 0.0846                 0.1100
 IR Inten    --      4.7429                 9.9705                 6.2126

                     16                     17                     18
                      A                      A                      A
 Frequencies --    232.9699               256.2199               264.1868
 Red. masses --      3.8066                 4.1547                 5.7954
 Frc consts  --      0.1217                 0.1607                 0.2383
 IR Inten    --      6.1089                12.2336                 3.8519

                     19                     20                     21
                      A                      A                      A
 Frequencies --    318.1645               354.0589               372.8390
 Red. masses --      4.0642                 5.6861                 7.3628
 Frc consts  --      0.2424                 0.4200                 0.6030
 IR Inten    --      2.5392                13.0329                26.9626

                     22                     23                     24
                      A                      A                      A
 Frequencies --    408.3158               427.0531               480.1237
 Red. masses --      3.9165                 2.4539                 5.6767
 Frc consts  --      0.3847                 0.2637                 0.7710
 IR Inten    --      3.2821                 3.7936                 9.2090

                     25                     26                     27
                      A                      A                      A
 Frequencies --    498.3623               546.5396               564.1777
 Red. masses --      2.7676                 2.5350                10.0424
 Frc consts  --      0.4050                 0.4461                 1.8833
 IR Inten    --      7.9416                 2.1732               124.8736

                     28                     29                     30
                      A                      A                      A
 Frequencies --    676.1911               726.5861               737.8281
 Red. masses --      5.7039                 1.5250                 5.0709
 Frc consts  --      1.5366                 0.4743                 1.6265
 IR Inten    --      9.7796                64.8467               114.1269

                     31                     32                     33
                      A                      A                      A
 Frequencies --    800.1458               805.7989               816.6530
 Red. masses --      1.5419                 7.4131                 3.6945
 Frc consts  --      0.5816                 2.8360                 1.4517
 IR Inten    --      7.6194               120.6925                30.1093

                     34                     35                     36
                      A                      A                      A
 Frequencies --    817.2076               855.1196               864.2194
 Red. masses --      2.4695                 6.1452                 1.4786
 Frc consts  --      0.9717                 2.6475                 0.6506
 IR Inten    --     58.7511                31.8737                21.5617

                     37                     38                     39
                      A                      A                      A
 Frequencies --    905.0494               922.9073               960.0125
 Red. masses --      1.9283                 1.6434                 1.6714
 Frc consts  --      0.9306                 0.8247                 0.9076
 IR Inten    --     15.9162                30.4241                 3.0061

                     40                     41                     42
                      A                      A                      A
 Frequencies --    972.2120               979.4642              1005.8198
 Red. masses --      1.8059                 1.3471                 1.3101
 Frc consts  --      1.0057                 0.7614                 0.7809
 IR Inten    --      6.3061                 6.8155                 4.0926

                     43                     44                     45
                      A                      A                      A
 Frequencies --   1029.7643              1052.8416              1071.3873
 Red. masses --      1.2917                 9.7358                 8.0342
 Frc consts  --      0.8070                 6.3584                 5.4336
 IR Inten    --      8.7496               396.7438               332.0017

                     46                     47                     48
                      A                      A                      A
 Frequencies --   1088.9771              1104.2032              1111.8647
 Red. masses --      1.6338                 1.3967                 1.3871
 Frc consts  --      1.1415                 1.0033                 1.0103
 IR Inten    --      2.6908                 0.6800                 2.9702

                     49                     50                     51
                      A                      A                      A
 Frequencies --   1123.4347              1135.6231              1155.6323
 Red. masses --      1.4552                 1.2527                 2.1758
 Frc consts  --      1.0821                 0.9519                 1.7121
 IR Inten    --      0.6408                 4.3828                 4.4360

                     52                     53                     54
                      A                      A                      A
 Frequencies --   1180.5890              1185.5317              1186.5252
 Red. masses --      1.2574                 1.2545                 1.5165
 Frc consts  --      1.0326                 1.0388                 1.2579
 IR Inten    --      1.5753                 1.2192                 8.5333

                     55                     56                     57
                      A                      A                      A
 Frequencies --   1203.6740              1206.8866              1232.4660
 Red. masses --      1.4051                 1.3369                 6.8164
 Frc consts  --      1.1994                 1.1473                 6.1003
 IR Inten    --     13.9407                14.7443               112.8487

                     58                     59                     60
                      A                      A                      A
 Frequencies --   1258.1645              1295.5180              1322.4923
 Red. masses --      1.6477                 1.6348                 1.6212
 Frc consts  --      1.5367                 1.6166                 1.6706
 IR Inten    --     36.8313                 3.5183                 1.5823

                     61                     62                     63
                      A                      A                      A
 Frequencies --   1343.7539              1411.7737              1435.0667
 Red. masses --      1.6822                 2.8773                 1.2413
 Frc consts  --      1.7897                 3.3788                 1.5062
 IR Inten    --     29.3858                21.8139                 3.5160

                     64                     65                     66
                      A                      A                      A
 Frequencies --   1460.2422              1484.5194              1486.2577
 Red. masses --      2.1733                 1.2010                 1.1399
 Frc consts  --      2.7304                 1.5594                 1.4836
 IR Inten    --     20.3318                 6.5454                 4.9924

                     67                     68                     69
                      A                      A                      A
 Frequencies --   1487.7279              1509.9975              1512.8409
 Red. masses --      1.1445                 1.4707                 1.0604
 Frc consts  --      1.4924                 1.9757                 1.4299
 IR Inten    --      1.9508                92.7972                14.1090

                     70                     71                     72
                      A                      A                      A
 Frequencies --   1513.5880              1515.9128              1525.6090
 Red. masses --      1.0695                 1.0479                 1.0495
 Frc consts  --      1.4435                 1.4187                 1.4392
 IR Inten    --      8.4638                 6.2565                 9.7266

                     73                     74                     75
                      A                      A                      A
 Frequencies --   1529.7476              1530.9246              1541.7760
 Red. masses --      1.1265                 1.6507                 3.1320
 Frc consts  --      1.5532                 2.2795                 4.3864
 IR Inten    --     49.5586                65.5537                23.5295

                     76                     77                     78
                      A                      A                      A
 Frequencies --   1611.9667              3003.9844              3043.8193
 Red. masses --      8.1151                 1.0733                 1.0362
 Frc consts  --     12.4239                 5.7064                 5.6563
 IR Inten    --    147.9409                17.3718                33.8116

                     79                     80                     81
                      A                      A                      A
 Frequencies --   3061.2859              3066.6608              3099.6902
 Red. masses --      1.0289                 1.0275                 1.0997
 Frc consts  --      5.6811                 5.6935                 6.2254
 IR Inten    --     60.8003                56.0966                17.3110

                     82                     83                     84
                      A                      A                      A
 Frequencies --   3115.0250              3135.2959              3137.8410
 Red. masses --      1.1021                 1.0877                 1.1080
 Frc consts  --      6.3008                 6.2996                 6.4279
 IR Inten    --     19.2543                15.5200                16.7781

                     85                     86                     87
                      A                      A                      A
 Frequencies --   3149.9722              3158.1084              3161.3781
 Red. masses --      1.1084                 1.1077                 1.1061
 Frc consts  --      6.4795                 6.5092                 6.5134
 IR Inten    --     10.5596                22.1245                17.2237

                     88                     89                     90
                      A                      A                      A
 Frequencies --   3167.9706              3182.5861              3215.0027
 Red. masses --      1.0884                 1.0897                 1.0894
 Frc consts  --      6.4359                 6.5031                 6.6346
 IR Inten    --      5.0431                17.2315                 1.4065

                     91                     92                     93
                      A                      A                      A
 Frequencies --   3235.8801              3244.2387              3260.9960
 Red. masses --      1.0908                 1.0922                 1.1029
 Frc consts  --      6.7294                 6.7727                 6.9102
 IR Inten    --      2.2253                 3.3130                 0.8248

 - Thermochemistry -
 -------------------
 Temperature   298.150 Kelvin.  Pressure   1.00000 Atm.
 Atom     1 has atomic number  1 and mass   1.00783

 Molecular mass:   244.08645 amu.
 Principal axes and moments of inertia in atomic units:
                           1         2         3
     Eigenvalues --  2272.687735603.562705886.23157
           X            0.99987  -0.01479   0.00562
           Y            0.01448   0.99854   0.05205
           Z           -0.00638  -0.05196   0.99863
 This molecule is an asymmetric top.
 Rotational symmetry number  1.
 Warning -- assumption of classical behavior for rotation
           may cause significant error
 Rotational temperatures (Kelvin)      0.03811     0.01546     0.01471
 Rotational constants (GHZ):           0.79410     0.32207     0.30660
    1 imaginary frequencies ignored.
 Zero-point vibrational energy     702916.8 (Joules/Mol)
                                  168.00114 (Kcal/Mol)
 Warning -- explicit consideration of  26 degrees of freedom as
           vibrations may cause significant error
 Vibrational temperatures:     35.11    62.88    74.34   102.18   113.87
          (Kelvin)            142.63   165.48   166.62   183.99   223.41
                              236.00   277.06   302.48   307.01   335.19
                              368.64   380.11   457.77   509.41   536.43
                              587.48   614.43   690.79   717.03   786.35
                              811.73   972.89  1045.40  1061.57  1151.23
                             1159.36  1174.98  1175.78  1230.33  1243.42
                             1302.16  1327.86  1381.24  1398.80  1409.23
                             1447.15  1481.60  1514.80  1541.49  1566.80
                             1588.70  1599.73  1616.37  1633.91  1662.70
                             1698.60  1705.72  1707.15  1731.82  1736.44
                             1773.24  1810.22  1863.96  1902.77  1933.36
                             2031.23  2064.74  2100.96  2135.89  2138.39
                             2140.51  2172.55  2176.64  2177.72  2181.06
                             2195.01  2200.97  2202.66  2218.27  2319.26
                             4322.06  4379.38  4404.51  4412.24  4459.76
                             4481.83  4510.99  4514.65  4532.11  4543.81
                             4548.52  4558.00  4579.03  4625.67  4655.71
                             4667.74  4691.85

 Zero-point correction=                           0.267727 (Hartree/Particle)
 Thermal correction to Energy=                    0.285868
 Thermal correction to Enthalpy=                  0.286813
 Thermal correction to Gibbs Free Energy=         0.220257
 Sum of electronic and zero-point Energies=          -1071.373278
 Sum of electronic and thermal Energies=             -1071.355136
 Sum of electronic and thermal Enthalpies=           -1071.354192
 Sum of electronic and thermal Free Energies=        -1071.420748

                     E (Thermal)             CV                S
                      KCal/Mol        Cal/Mol-Kelvin    Cal/Mol-Kelvin
 Total                  179.385             64.676            140.077
 Electronic               0.000              0.000              0.000
 Translational            0.889              2.981             42.378
 Rotational               0.889              2.981             32.683
 Vibrational            177.608             58.715             65.016
 Vibration     1          0.593              1.985              6.239
 Vibration     2          0.595              1.980              5.084
 Vibration     3          0.596              1.977              4.752
 Vibration     4          0.598              1.968              4.125
 Vibration     5          0.600              1.963              3.912
 Vibration     6          0.604              1.950              3.471
 Vibration     7          0.608              1.937              3.183
 Vibration     8          0.608              1.936              3.169
 Vibration     9          0.611              1.925              2.978
 Vibration    10          0.620              1.897              2.607
 Vibration    11          0.623              1.887              2.503
 Vibration    12          0.635              1.850              2.203
 Vibration    13          0.642              1.825              2.042
 Vibration    14          0.644              1.821              2.015
 Vibration    15          0.654              1.790              1.856
 Vibration    16          0.666              1.752              1.687
 Vibration    17          0.671              1.739              1.634
 Vibration    18          0.705              1.639              1.320
 Vibration    19          0.730              1.567              1.148
 Vibration    20          0.744              1.528              1.068
 Vibration    21          0.773              1.452              0.933
 Vibration    22          0.789              1.411              0.868
 Vibration    23          0.836              1.294              0.710
 Vibration    24          0.854              1.254              0.662
 Vibration    25          0.902              1.147              0.551
 Vibration    26          0.920              1.109              0.516

 Optimization completed.
    -- Stationary point found.
 Normal termination of Gaussian 16 at Wed Jan 16 19:24:25 2019.
